    -----------------------------------------------------------------------
          PSI4: An Open-Source Ab Initio Electronic Structure Package
                              PSI 4.0.0-beta5+ Driver

               Git: Rev {master} 9d58e3232f5119c56bd9b7f8db5f5d433b85fee8

    J. M. Turney, A. C. Simmonett, R. M. Parrish, E. G. Hohenstein,
    F. A. Evangelista, J. T. Fermann, B. J. Mintz, L. A. Burns, J. J. Wilke,
    M. L. Abrams, N. J. Russ, M. L. Leininger, C. L. Janssen, E. T. Seidl,
    W. D. Allen, H. F. Schaefer, R. A. King, E. F. Valeev, C. D. Sherrill,
    and T. D. Crawford, WIREs Comput. Mol. Sci. 2, 556-565 (2012)
    (doi: 10.1002/wcms.93)

                         Additional Contributions by
    A. E. DePrince, M. Saitow, U. Bozkaya, A. Yu. Sokolov
    -----------------------------------------------------------------------

    Process ID:  14715
    PSI4DATADIR: /apps/psicode/4.0b5.1/share/psi

    Using LocalCommunicator (Number of processes = 1)

    Memory level set to 256.000 MB

  ==> Input File <==

--------------------------------------------------------------------------
#DF-MP2 CALCULATION: 1ip-SPEC

memory 32 Gb

molecule complex {
-1 1
 O       -7.51612712     -4.15685492     -3.42217856
 S       -7.36564424     -4.53792658     -1.98578205
 O       -6.86759298     -3.42786225     -1.11936050
 O       -8.55716228     -5.23471908     -1.42880238
 H       -5.13112061     -5.28702788     -2.38055373
 H       -5.88440692     -6.08454003     -0.93080981
 H       -6.35294704     -6.61139342     -2.60595163
 C       -6.04779838     -5.75542432     -1.97465875
units angstrom
no_reorient
symmetry c1
}

set globals {
    basis cc-pVTZ
    scf_type DF
    freeze_core True
    guess sad
    S_ORTHOGONALIZATION canonical
}

energy('mp2')
--------------------------------------------------------------------------

  Memory set to  32.000 GiB by Python script.

  No DF_BASIS_SCF auxiliary basis selected, defaulting to cc-pvtz-jkfit


*** tstart() called on r122
*** at Thu May 25 12:01:16 2017


         ---------------------------------------------------------
                                   SCF
            by Justin Turney, Rob Parrish, and Andy Simmonett
                              RHF Reference
                        1 Threads,  32000 MiB Core
         ---------------------------------------------------------

  ==> Geometry <==

    Molecular point group: c1
    Full point group: C1

    Geometry (in Angstrom), charge = -1, multiplicity = 1:

       Center              X                  Y                   Z       
    ------------   -----------------  -----------------  -----------------
           O         -0.225032094950     0.447484251054    -1.436038175336
           S         -0.074549214950     0.066412591054     0.000358334664
           O          0.423502045050     1.176476921054     0.866779884664
           O         -1.266067254950    -0.630379908946     0.557338004664
           H          2.159974415050    -0.682688708946    -0.394413345336
           H          1.406688105050    -1.480200858946     1.055330574664
           H          0.938147985050    -2.007054248946    -0.619811245336
           C          1.243296645050    -1.151085148946     0.011481634664

  Running in c1 symmetry.


	Rotational constants (cm^-1):
	A =    0.16374    B =    0.15318   C =    0.15259

	Rotational constants (MHz):
	A = 4908.86403    B = 4592.10689   C = 4574.47272
  Nuclear repulsion =  267.006745229337923

  Charge       = -1
  Multiplicity = 1
  Electrons    = 50
  Nalpha       = 25
  Nbeta        = 25

  ==> Algorithm <==

  SCF Algorithm Type is DF.
  DIIS enabled.
  MOM disabled.
  Fractional occupation disabled.
  Guess Type is SAD.
  Energy threshold   = 1.00e-08
  Density threshold  = 1.00e-08
  Integral threshold = 0.00e+00

  ==> Primary Basis <==

  Basis Set: CC-PVTZ
    Number of shells: 70
    Number of basis function: 196
    Number of Cartesian functions: 224
    Spherical Harmonics?: true
    Max angular momentum: 3

  ==> Pre-Iterations <==

   -------------------------------------------------------
    Irrep   Nso     Nmo     Nalpha   Nbeta   Ndocc  Nsocc
   -------------------------------------------------------
     A        196     196       0       0       0       0
   -------------------------------------------------------
    Total     196     196      25      25      25       0
   -------------------------------------------------------

 OEINTS: Wrapper to libmints.
   by Justin Turney

   Calculation information:
      Number of atoms:                   8
      Number of AO shells:              70
      Number of SO shells:              70
      Number of primitives:            188
      Number of atomic orbitals:       224
      Number of basis functions:       196

      Number of irreps:                  1
      Number of functions per irrep: [ 196 ]

      Overlap, kinetic, potential, dipole, and quadrupole integrals
        stored in file 35.

  ==> Integral Setup <==

  ==> DFJK: Density-Fitted J/K Matrices <==

    J tasked:                  Yes
    K tasked:                  Yes
    wK tasked:                  No
    OpenMP threads:              1
    Integrals threads:           1
    Memory (MB):             22888
    Algorithm:                Core
    Integral Cache:           NONE
    Schwarz Cutoff:          1E-12
    Fitting Condition:       1E-12

   => Auxiliary Basis Set <=

  Basis Set: cc-pvtz-jkfit
    Number of shells: 167
    Number of basis function: 527
    Number of Cartesian functions: 634
    Spherical Harmonics?: true
    Max angular momentum: 4

  Minimum eigenvalue in the overlap matrix is 1.6161664149E-03.
  Using Canonical Orthogonalization with cutoff of 1.0000000000E-07.
  Overall, 0 of 196 possible MOs eliminated.

  SCF Guess: Superposition of Atomic Densities via on-the-fly atomic UHF.

  ==> Iterations <==

                           Total Energy        Delta E     RMS |[F,P]|

   @DF-RHF iter   0:  -671.70659425308781   -6.71707e+02   2.21837e-02 
   @DF-RHF iter   1:  -661.51173890555151    1.01949e+01   4.69464e-03 
   @DF-RHF iter   2:  -661.73050384391809   -2.18765e-01   2.95095e-03 DIIS
   @DF-RHF iter   3:  -661.85330622747142   -1.22802e-01   5.40328e-04 DIIS
   @DF-RHF iter   4:  -661.85902528714973   -5.71906e-03   1.79165e-04 DIIS
   @DF-RHF iter   5:  -661.86033868012078   -1.31339e-03   5.16238e-05 DIIS
   @DF-RHF iter   6:  -661.86047745017777   -1.38770e-04   1.93212e-05 DIIS
   @DF-RHF iter   7:  -661.86049110152521   -1.36513e-05   8.83320e-06 DIIS
   @DF-RHF iter   8:  -661.86049357596153   -2.47444e-06   1.88093e-06 DIIS
   @DF-RHF iter   9:  -661.86049374852109   -1.72560e-07   6.29240e-07 DIIS
   @DF-RHF iter  10:  -661.86049376432493   -1.58038e-08   1.95660e-07 DIIS
   @DF-RHF iter  11:  -661.86049376629649   -1.97156e-09   4.23409e-08 DIIS
   @DF-RHF iter  12:  -661.86049376639562   -9.91349e-11   1.12331e-08 DIIS
   @DF-RHF iter  13:  -661.86049376640108   -5.45697e-12   3.58455e-09 DIIS

  ==> Post-Iterations <==

	Orbital Energies (a.u.)
	-----------------------

	Doubly Occupied:                                                      

	   1A    -91.985149     2A    -20.322501     3A    -20.321327  
	   4A    -20.321151     5A    -11.096347     6A     -8.947842  
	   7A     -6.633331     8A     -6.632702     9A     -6.632649  
	  10A     -1.241315    11A     -1.097471    12A     -1.095549  
	  13A     -0.835809    14A     -0.601993    15A     -0.469626  
	  16A     -0.458223    17A     -0.458070    18A     -0.407161  
	  19A     -0.406862    20A     -0.306264    21A     -0.305846  
	  22A     -0.261400    23A     -0.260455    24A     -0.247303  
	  25A     -0.223318  

	Virtual:                                                              

	  26A      0.287994    27A      0.344002    28A      0.344102  
	  29A      0.416391    30A      0.494922    31A      0.501997  
	  32A      0.502719    33A      0.559850    34A      0.560160  
	  35A      0.597658    36A      0.648630    37A      0.659299  
	  38A      0.659514    39A      0.746596    40A      0.747086  
	  41A      0.756444    42A      0.807482    43A      0.847200  
	  44A      0.847310    45A      0.911354    46A      0.921922  
	  47A      0.922966    48A      0.993334    49A      0.993784  
	  50A      1.029905    51A      1.118440    52A      1.136269  
	  53A      1.136496    54A      1.142945    55A      1.146265  
	  56A      1.164468    57A      1.209947    58A      1.239531  
	  59A      1.242835    60A      1.304696    61A      1.367983  
	  62A      1.370008    63A      1.372907    64A      1.480011  
	  65A      1.539701    66A      1.540166    67A      1.640262  
	  68A      1.640572    69A      1.700897    70A      1.701347  
	  71A      1.824568    72A      1.846297    73A      1.847706  
	  74A      1.879601    75A      1.883782    76A      1.884490  
	  77A      1.893932    78A      1.944536    79A      1.946261  
	  80A      2.050280    81A      2.061112    82A      2.119270  
	  83A      2.119872    84A      2.135732    85A      2.136762  
	  86A      2.222994    87A      2.296103    88A      2.297024  
	  89A      2.378534    90A      2.487790    91A      2.489036  
	  92A      2.655399    93A      2.734966    94A      2.761303  
	  95A      2.784957    96A      2.790341    97A      2.829461  
	  98A      2.829724    99A      2.893411   100A      2.895527  
	 101A      2.912445   102A      2.985588   103A      2.985852  
	 104A      3.011502   105A      3.089731   106A      3.122132  
	 107A      3.126973   108A      3.229649   109A      3.260426  
	 110A      3.261002   111A      3.261766   112A      3.455564  
	 113A      3.456407   114A      3.518815   115A      3.519358  
	 116A      3.639523   117A      3.640493   118A      3.718392  
	 119A      3.845058   120A      3.865961   121A      3.866984  
	 122A      3.917390   123A      3.988662   124A      4.038485  
	 125A      4.038542   126A      4.275795   127A      4.276335  
	 128A      4.327690   129A      4.402581   130A      4.404275  
	 131A      4.453350   132A      4.518682   133A      4.520999  
	 134A      4.574678   135A      4.575703   136A      4.592527  
	 137A      4.607627   138A      4.635210   139A      4.636120  
	 140A      4.636608   141A      4.733463   142A      5.091311  
	 143A      5.164224   144A      5.165050   145A      5.376683  
	 146A      5.464985   147A      5.468087   148A      5.482177  
	 149A      5.484554   150A      5.640323   151A      5.678095  
	 152A      5.680441   153A      5.682551   154A      5.762070  
	 155A      5.818102   156A      5.820100   157A      5.820489  
	 158A      5.823367   159A      5.825479   160A      5.826001  
	 161A      5.835233   162A      5.836290   163A      5.921670  
	 164A      5.964886   165A      5.966402   166A      5.990329  
	 167A      5.992597   168A      6.002782   169A      6.207448  
	 170A      6.207814   171A      6.212079   172A      6.309027  
	 173A      6.310602   174A      6.405713   175A      6.408284  
	 176A      6.491230   177A      6.958558   178A      7.028869  
	 179A      7.039378   180A      7.039588   181A      7.117051  
	 182A      7.117286   183A      7.203629   184A      7.397575  
	 185A      7.441360   186A      7.442162   187A      7.468696  
	 188A      7.612943   189A      7.616749   190A      7.662213  
	 191A      7.662595   192A      7.874121   193A     10.199096  
	 194A     10.216345   195A     10.654573   196A     13.376694  

	Final Occupation by Irrep:
	          A 
	DOCC [    25 ]

  Energy converged.

  @DF-RHF Final Energy:  -661.86049376640108

   => Energetics <=

    Nuclear Repulsion Energy =            267.0067452293379233
    One-Electron Energy =               -1454.5951430291902398
    Two-Electron Energy =                 525.7279040334516367
    DFT Exchange-Correlation Energy =       0.0000000000000000
    Empirical Dispersion Energy =           0.0000000000000000
    Total Energy =                       -661.8604937664007366



Properties will be evaluated at   0.000000,   0.000000,   0.000000 Bohr
  ==> Properties <==


Properties computed using the SCF density density matrix
  Nuclear Dipole Moment: (a.u.)
     X:     4.2160      Y:    -3.9027      Z:     0.0385

  Electronic Dipole Moment: (a.u.)
     X:    -3.0283      Y:     2.7826      Z:    -0.0201

  Dipole Moment: (a.u.)
     X:     1.1877      Y:    -1.1201      Z:     0.0184     Total:     1.6327

  Dipole Moment: (Debye)
     X:     3.0189      Y:    -2.8470      Z:     0.0467     Total:     4.1499


  Saving occupied orbitals to File 180.

*** tstop() called on r122 at Thu May 25 12:01:38 2017
Module time:
	user time   =      21.59 seconds =       0.36 minutes
	system time =       0.18 seconds =       0.00 minutes
	total time  =         22 seconds =       0.37 minutes
Total time:
	user time   =      21.59 seconds =       0.36 minutes
	system time =       0.18 seconds =       0.00 minutes
	total time  =         22 seconds =       0.37 minutes

  //>>>>>>>>>>>>>>>>>>>>>>>>>>>>>>>>>>>//
  //               DFMP2               //
  //<<<<<<<<<<<<<<<<<<<<<<<<<<<<<<<<<<<//

  No DF_BASIS_MP2 auxiliary basis selected, defaulting to cc-pvtz-ri

*** tstart() called on r122
*** at Thu May 25 12:01:38 2017

	 --------------------------------------------------------
	                          DF-MP2                         
	      2nd-Order Density-Fitted Moller-Plesset Theory     
	              RMP2 Wavefunction,   1 Threads             
	                                                         
	        Rob Parrish, Justin Turney, Andy Simmonett,      
	           Ed Hohenstein, and C. David Sherrill          
	 --------------------------------------------------------

   => Auxiliary Basis Set <=

  Basis Set: cc-pvtz-ri
    Number of shells: 154
    Number of basis function: 536
    Number of Cartesian functions: 665
    Spherical Harmonics?: true
    Max angular momentum: 4

	 --------------------------------------------------------
	                 NBF =   196, NAUX =   536
	 --------------------------------------------------------
	   CLASS    FOCC     OCC    AOCC    AVIR     VIR    FVIR
	   PAIRS       9      25      16     171     171       0
	 --------------------------------------------------------

	----------------------------------------------------------
	 ==================> DF-MP2 Energies <=================== 
	----------------------------------------------------------
	 Reference Energy          =    -661.8604937664010777 [H]
	 Singles Energy            =      -0.0000000000000907 [H]
	 Same-Spin Energy          =      -0.2845172024045070 [H]
	 Opposite-Spin Energy      =      -0.8034279693135468 [H]
	 Correlation Energy        =      -1.0879451717181445 [H]
	 Total Energy              =    -662.9484389381192386 [H]
	----------------------------------------------------------
	 ================> DF-SCS-MP2 Energies <================= 
	----------------------------------------------------------
	 SCS Same-Spin Scale       =       0.3333333333333333 [-]
	 SCS Opposite-Spin Scale   =       1.2000000000000000 [-]
	 SCS Same-Spin Energy      =      -0.0948390674681690 [H]
	 SCS Opposite-Spin Energy  =      -0.9641135631762561 [H]
	 SCS Correlation Energy    =      -1.0589526306445158 [H]
	 SCS Total Energy          =    -662.9194463970455899 [H]
	----------------------------------------------------------


*** tstop() called on r122 at Thu May 25 12:01:40 2017
Module time:
	user time   =       1.78 seconds =       0.03 minutes
	system time =       0.10 seconds =       0.00 minutes
	total time  =          2 seconds =       0.03 minutes
Total time:
	user time   =      23.37 seconds =       0.39 minutes
	system time =       0.28 seconds =       0.00 minutes
	total time  =         24 seconds =       0.40 minutes

*** PSI4 exiting successfully. Buy a developer a beer!
